HEADER
"PSFversion" "1.00"
"N4n N3n N2n N1n" "NCSU_Analog_Parts_nmos4_spectre"
"P1n P0n" "NCSU_Analog_Parts_pmos4_spectre"
"C2n C1n C0n" "NCSU_Analog_Parts_cap_spectre"
"V0n" "NCSU_Analog_Parts_vdc_spectre"
