HEADER
"PSFversion" "1.00"
"design" "(\"sram_6t\" \"sram_cell_8t\" \"schematic\" \"\")"
"simulator" "spectre"
"temperature" "27"
"host" ""
"date" "Oct 31 23:39:32 2021"
"title" ""
"analysisList" "()"
END
