HEADER
"PSFversion" "1.00"
"C2n C0n C1n" "NCSU_Analog_Parts_cap_spectre"
"I0n" "sram_cell_6t_ckt_fin"
"V0n" "NCSU_Analog_Parts_vdc_spectre"
