HEADER
"PSFversion" "1.00"
"design" "(\"sram_6t\" \"sram_cell_8t_noise_margin\" \"schematic\" \"\")"
"simulator" "spectre"
"temperature" "27"
"host" ""
"date" "Nov  3 23:06:15 2021"
"title" ""
"analysisList" "()"
END
