HEADER
"PSFversion" "1.00"
"Time Stamp" "Nov  1 19:49:08 2021"
TYPE
"variable" STRUCT(
"value" FLOAT DOUBLE
) PROP( "key" "element" )
VALUE
"temp" "variable" ( 27 ) PROP( )
END
