HEADER
"PSFversion" "1.00"
"__NEXT_FILE__" "sram_6t_noise_margin_fin"
