HEADER
"PSFversion" "1.00"
"Time Stamp" "Oct 31 11:31:53 2021"
TYPE
"variable" STRUCT(
"value" FLOAT DOUBLE
) PROP( "key" "element" )
VALUE
"temp" "variable" ( 27 ) PROP( )
END
