HEADER
"PSFversion" "1.00"
"design" "(\"sram_6t\" \"sram_cell_8t_ckt_layout_simulation\" \"schematic\" \"\")"
"simulator" "spectre"
"temperature" "27"
"host" ""
"date" "Nov  3 16:04:23 2021"
"title" ""
"analysisList" "()"
END
