HEADER
"PSFversion" "1.00"
"C2n C1n C0n" "NCSU_Analog_Parts_cap_spectre"
"I0n" "sram_cell_6t_ckt_fin"
