HEADER
"PSFversion" "1.00"
"+5n +4n" "NCSU_Analog_Parts_pmos4_spectre"
"+21n +20n +19n +18n +17n +16n +15n +14n +13n +12n +11n +10n +9n +8n +7n +6n" "NCSU_Analog_Parts_pcapacitor_spectre"
"+2n +1n +3n +0n" "NCSU_Analog_Parts_nmos4_spectre"
"BLv" ":1v"
"BLBv" ":2v"
"GNDv" ":3v"
"Qv" ":4v"
"QBv" ":5v"
"VDDv" ":6v"
"WLv" ":7v"
