HEADER
"PSFversion" "1.00"
"__NEXT_FILE__" "sram_cell_6t_ckt_fin_layout_simulation"
