HEADER
"PSFversion" "1.00"
"simulator" "spectre"
"version" "15.1.0.801.isr17"
"date" "10:52:51 PM, Wed Nov 3, 2021"
"design" "// Generated for: spectre"
"analysis type" "info.subckts"
"analysis name" "subckts"
"analysis description" "Circuit Information"
"xVecSorted" "unknown"
"tolerance.relative" 0.00100000
TYPE
"subckt" STRUCT(
"subckt_params" STRING *
"subckt_terminals" STRING *
) PROP(
"key" "sub"
)
VALUE
"sram_cell_6t_ckt_fin" "subckt" (
""
"BL BLB GND Q QB VDD WL"
)
END
