HEADER
"PSFversion" "1.00"
"Time Stamp" "Nov  3 00:28:07 2021"
TYPE
"variable" STRUCT(
"value" FLOAT DOUBLE
) PROP( "key" "element" )
VALUE
"temp" "variable" ( 27 ) PROP( )
END
