HEADER
"PSFversion" "1.00"
"N3n N1n N4n N2n" "NCSU_Analog_Parts_nmos4_spectre"
"P1n P0n" "NCSU_Analog_Parts_pmos4_spectre"
"C2n C1n C0n" "NCSU_Analog_Parts_cap_spectre"
