HEADER
"PSFversion" "1.00"
"Time Stamp" "Oct 31 21:46:49 2021"
TYPE
"variable" STRUCT(
"value" FLOAT DOUBLE
) PROP( "key" "element" )
VALUE
"x" "variable" ( 0 ) PROP( )
"temp" "variable" ( 27 ) PROP( )
END
