HEADER
"PSFversion" "1.00"
"C2n C0n C1n C4n C3n" "NCSU_Analog_Parts_cap_spectre"
"I0n" "sram_cell_8t_ckt_layout"
"V0n" "NCSU_Analog_Parts_vdc_spectre"
