HEADER
"PSFversion" "1.00"
"design" "(\"sram_6t\" \"sram_cell_noise_margin\" \"schematic\" \"\")"
"simulator" "spectre"
"temperature" "27"
"host" ""
"date" "Oct 31 15:15:24 2021"
"title" ""
"analysisList" "()"
END
