HEADER
"PSFversion" "1.00"
"design" "(\"sram_6t\" \"sram_cell\" \"schematic\" \"\")"
"simulator" "spectre"
"temperature" "27"
"host" ""
"date" "Oct 30 22:04:52 2021"
"title" ""
"analysisList" "()"
END
