HEADER
"PSFversion" "1.00"
"simulator" "spectre"
"version" "15.1.0.801.isr17"
"date" "10:04:53 PM, Sat Oct 30, 2021"
"design" "// Generated for: spectre"
"analysis type" "info.subckts"
"analysis name" "subckts"
"analysis description" "Circuit Information"
"xVecSorted" "unknown"
"tolerance.relative" 0.00100000
END
