HEADER
"PSFversion" "1.00"
"C4n C3n C2n C1n C0n" "NCSU_Analog_Parts_cap_spectre"
"I0n" "sram_cell_8t_ckt_layout_extracted"
