HEADER
"PSFversion" "1.00"
"+7n +6n" "NCSU_Analog_Parts_pmos4_spectre"
"+27n +26n +25n +24n +23n +22n +21n +20n +19n +18n +17n +16n +15n +14n +13n +12n +11n +10n +9n +8n" "NCSU_Analog_Parts_pcapacitor_spectre"
"+5n +4n +2n +0n +3n +1n" "NCSU_Analog_Parts_nmos4_spectre"
"GNDv" ":1v"
"Qv" ":2v"
"QBv" ":3v"
"RBLv" ":4v"
"RWLv" ":5v"
"VDDv" ":6v"
"WBLv" ":7v"
"WBLBv" ":8v"
"WWLv" ":9v"
